10
Energy: -178454.253947 kcal/mol
N -1.32515296 0.53179977 0.02732846
C -0.55283231 -0.53689697 0.27359857
O -0.93673169 -1.53954165 0.87938565
C 0.87291687 -0.46848978 -0.25595182
O 1.21309354 0.76643004 -0.85429187
H -2.28951900 0.53731832 0.33027552
H -0.96231670 1.30850518 -0.50712875
H 1.54381442 -0.72597674 0.57356696
H 0.96538726 -1.24671605 -1.02310448
H 1.46378393 1.38997898 -0.16125550
