10
Energy: -178454.426436 kcal/mol
N 1.48928879 -0.09401547 -0.49591545
C 0.35487407 0.44642035 -0.02797626
O 0.22642375 1.64077097 0.24792185
C -0.81963876 -0.50437864 0.16001227
O -1.93777046 0.19657266 0.65001384
H 1.55228096 -1.07913001 -0.71181569
H 2.30311106 0.48853046 -0.63975813
H -0.52188150 -1.29579279 0.86288397
H -1.05164539 -0.97247340 -0.80746471
H -1.65055080 1.12079251 0.74064369
